/*--------------------------------*- C++ -*----------------------------------*\
| =========                 |                                                 |
| \\      /  F ield         | OpenFOAM: The Open Source CFD Toolbox           |
|  \\    /   O peration     | Version:  v1806                                 |
|   \\  /    A nd           | Web:      www.OpenFOAM.com                      |
|    \\/     M anipulation  |                                                 |
\*---------------------------------------------------------------------------*/
FoamFile
{
    version     2.0;
    format      ascii;
    class       volVectorField;
    location    "0";
    object      U;
}
// * * * * * * * * * * * * * * * * * * * * * * * * * * * * * * * * * * * * * //

dimensions      [0 1 -1 0 0 0 0];


internalField   uniform (0 0 0);

boundaryField
{
    inlet
    {
        //type            waveTransmissive;
        //psi             psi_mixture;
        //gamma           1;
        //fieldInf        (0 0 0);
        //lInf            0.006;
        //value           uniform (0 0 0);
        type		zeroGradient;
    }
    outlet
    {
        type            waveTransmissive;
        psi             psi;
        gamma           1;
        fieldInf        (0 0 0);
        lInf            0.006;
        value           uniform (0 0 0);
    }
    walls
    {
        type            fixedValue;
        value           uniform (0 0 0);
    }
    frontBack
    {
        type            empty;
    }
}


// ************************************************************************* //
